# vtk DataFile Version 4.2
vtk output
ASCII
DATASET POLYDATA
POINTS 40962 float
0 0 100 27.64 -85.07 44.72 89.44 0 44.72 
27.64 85.07 44.72 -72.36 52.57 44.72 -72.36 -52.57 44.72 
-27.64 -85.07 -44.72 72.36 -52.57 -44.72 72.36 52.57 -44.72 
-27.64 85.07 -44.72 -89.44 0 -44.72 0 0 -100 
-42.53 30.9 85.07 -26.29 80.9 52.57 16.25 50 85.07 
-42.53 -30.9 85.07 -85.07 0 52.57 16.25 -50 85.07 
-26.29 -80.9 52.57 52.57 0 85.07 68.82 -50 52.57 
68.82 50 52.57 58.78 80.9 0 95.11 30.9 0 
0 100 0 26.29 80.9 -52.57 -58.78 80.9 0 
-95.11 30.9 0 -68.82 50 -52.57 -95.11 -30.9 0 
-58.78 -80.9 0 -68.82 -50 -52.57 0 -100 0 
58.78 -80.9 0 26.29 -80.9 -52.57 95.11 -30.9 0 
85.07 0 -52.57 -16.25 50 -85.07 42.53 30.9 -85.07 
-52.57 0 -85.07 -16.25 -50 -85.07 42.53 -30.9 -85.07 
-22.11 16.06 96.19 -13.82 42.53 89.44 8.44 25.99 96.19 
-22.11 -16.06 96.19 -44.72 0 89.44 8.44 -25.99 96.19 
-13.82 -42.53 89.44 27.33 0 96.19 36.18 -26.29 89.44 
36.18 26.29 89.44 44.92 86.27 23.25 67.08 68.82 27.64 
50.14 70.2 50.57 14.37 96.19 23.25 30.9 95.11 0 
0.7 86.27 50.57 -13.82 95.11 27.64 -87.05 43.39 23.25 
-80.9 58.78 0 -68.16 69.38 23.25 -81.83 27.33 50.57 
-94.72 16.25 27.64 -68.16 -69.38 23.25 -80.9 -58.78 0 
-87.05 -43.39 23.25 -51.28 -69.38 50.57 -44.72 -85.07 27.64 
44.92 -86.27 23.25 30.9 -95.11 0 14.37 -96.19 23.25 
50.14 -70.2 50.57 67.08 -68.82 27.64 95.93 16.06 23.25 
100 0 0 95.93 -16.06 23.25 51.28 69.38 -50.57 
36.18 58.78 -72.36 59.72 43.39 -67.46 -50.14 70.2 -50.57 
-44.72 52.57 -72.36 -22.81 70.2 -67.46 -82.26 -25.99 -50.57 
-63.82 -26.29 -72.36 -73.82 0 -67.46 -0.7 -86.27 -50.57 
5.28 -68.82 -72.36 -22.81 -70.2 -67.46 81.83 -27.33 -50.57 
67.08 -16.25 -72.36 59.72 -43.39 -67.46 -59.72 43.39 67.46 
-51.28 69.38 50.57 -36.18 58.78 72.36 -5.28 68.82 72.36 
22.81 70.2 67.46 -59.72 -43.39 67.46 -81.83 -27.33 50.57 
-67.08 -16.25 72.36 -67.08 16.25 72.36 22.81 -70.2 67.46 
0.7 -86.27 50.57 -5.28 -68.82 72.36 -36.18 -58.78 72.36 
73.82 0 67.46 82.26 -25.99 50.57 63.82 -26.29 72.36 
44.72 -52.57 72.36 44.72 52.57 72.36 63.82 26.29 72.36 
82.26 25.99 50.57 68.16 69.38 -23.25 87.05 43.39 -23.25 
80.9 58.78 0 86.18 42.53 27.64 -14.37 96.19 -23.25 
-0.7 86.27 -50.57 13.82 95.11 -27.64 44.72 85.07 -27.64 
-44.72 85.07 27.64 -30.9 95.11 0 -44.92 86.27 -23.25 
-95.93 16.06 -23.25 -82.26 25.99 -50.57 -86.18 42.53 -27.64 
-67.08 68.82 -27.64 -94.72 -16.25 27.64 -100 0 0 
-95.93 -16.06 -23.25 -44.92 -86.27 -23.25 -50.14 -70.2 -50.57 
-67.08 -68.82 -27.64 -86.18 -42.53 -27.64 -13.82 -95.11 27.64 
-30.9 -95.11 0 -14.37 -96.19 -23.25 68.16 -69.38 -23.25 
51.28 -69.38 -50.57 44.72 -85.07 -27.64 13.82 -95.11 -27.64 
86.18 -42.53 27.64 80.9 -58.78 0 87.05 -43.39 -23.25 
81.83 27.33 -50.57 94.72 16.25 -27.64 94.72 -16.25 -27.64 
5.28 68.82 -72.36 13.82 42.53 -89.44 -8.44 25.99 -96.19 
22.11 16.06 -96.19 -63.82 26.29 -72.36 -36.18 26.29 -89.44 
-27.33 0 -96.19 -44.72 -52.57 -72.36 -36.18 -26.29 -89.44 
-8.44 -25.99 -96.19 36.18 -58.78 -72.36 13.82 -42.53 -89.44 
22.11 -16.06 -96.19 67.08 16.25 -72.36 44.72 0 -89.44 
-11.16 8.11 99.04 -6.92 21.3 97.46 4.26 13.12 99.04 
-11.16 -8.11 99.04 -22.4 0 97.46 4.26 -13.12 99.04 
-6.92 -21.3 97.46 13.8 0 99.04 18.12 -13.17 97.46 
18.12 13.17 97.46 36.63 86.49 34.31 48.15 79.26 37.39 
39.26 78.38 48.11 21.21 91.5 34.31 30.03 92.43 23.55 
14.31 86.49 48.11 7.63 92.43 37.39 -80.47 48.44 34.31 
-78.63 57.13 23.55 -70.94 61.56 34.31 -77.84 40.34 48.11 
-85.55 35.82 37.39 -70.94 -61.56 34.31 -78.63 -57.13 23.55 
-80.47 -48.44 34.31 -62.41 -61.56 48.11 -60.51 -70.29 37.39 
36.63 -86.49 34.31 30.03 -92.43 23.55 21.21 -91.5 34.31 
39.26 -78.38 48.11 48.15 -79.26 37.39 93.58 8.11 34.31 
97.19 0 23.55 93.58 -8.11 34.31 62.41 61.56 -48.11 
56.23 57.13 -59.79 66.68 48.44 -56.63 -39.26 78.38 -48.11 
-36.95 71.13 -59.79 -25.47 78.38 -56.63 -86.68 -13.12 -48.11 
-79.07 -13.17 -59.79 -82.42 0 -56.63 -14.31 -86.49 -48.11 
-11.91 -79.26 -59.79 -25.47 -78.38 -56.63 77.84 -40.34 -48.11 
71.7 -35.82 -59.79 66.68 -48.44 -56.63 -51.62 37.5 77 
-48.45 51.61 70.63 -39.85 45.4 79.69 1.23 46.84 88.34 
-9.68 56.43 81.99 5.55 60.15 79.69 8.86 70.23 70.63 
19.72 60.68 77 -51.62 -37.5 77 -64.06 -30.13 70.63 
-55.49 -23.87 79.69 -44.17 15.64 88.34 -56.65 8.23 81.99 
-55.49 23.87 79.69 -64.06 30.13 70.63 19.72 -60.68 77 
8.86 -70.23 70.63 5.55 -60.15 79.69 -28.53 -37.17 88.34 
-25.34 -51.34 81.99 -39.85 -45.4 79.69 -48.45 -51.61 70.63 
63.81 0 77 69.53 -13.28 70.63 58.92 -13.31 79.69 
26.54 -38.62 88.34 41 -39.96 81.99 30.86 -51.93 79.69 
34.12 -62.02 70.63 34.12 62.02 70.63 30.86 51.93 79.69 
44.93 13.31 88.34 50.67 26.64 81.99 58.92 13.31 79.69 
69.53 13.28 70.63 64.08 75.87 -11.73 75.3 64.74 -11.74 
70.71 70.71 0 68.8 60.15 40.61 77.66 56.43 28.01 
78.47 46.84 40.61 85.09 34.62 39.51 76.27 38.36 52.07 
-7.25 99.04 -11.73 -0.28 96.64 -25.71 7 98.77 -13.99 
45.4 89.1 0 38.32 91.3 -14.01 52.39 84.02 -13.99 
57.03 78.02 -25.71 -39.16 75.87 52.07 -48.49 78.02 39.51 
-35.95 84.02 40.61 -7 98.77 13.99 -22.66 96.39 14.01 
-15.64 98.77 0 -22.87 96.64 -11.74 -96.44 23.71 -11.73 
-91.99 29.6 -25.71 -91.77 37.17 -13.99 -70.71 70.71 0 
-74.99 64.66 -14.01 -63.71 75.79 -13.99 -56.58 78.35 -25.71 
-52.35 84.39 -11.73 -84.25 -13.8 52.07 -89.19 -22.01 39.51 
-91.01 -8.22 40.61 -96.1 23.87 13.99 -98.67 8.23 14.01 
-98.77 15.64 0 -98.98 8.11 -11.74 -52.35 -84.39 -11.73 
-56.58 -78.35 -25.71 -63.71 -75.79 -13.99 -89.1 -45.4 0 
-84.67 -51.34 -14.01 -91.77 -37.17 -13.99 -91.99 -29.6 -25.71 
-96.44 -23.71 -11.73 -12.92 -84.39 52.07 -6.63 -91.62 39.51 
-20.3 -89.1 40.61 -52.39 -84.02 13.99 -38.32 -91.3 14.01 
-45.4 -89.1 0 -38.3 -91.62 -11.74 64.08 -75.87 -11.73 
57.03 -78.02 -25.71 52.4 -84.02 -13.99 15.64 -98.77 0 
22.66 -96.39 -14.01 7 -98.77 -13.99 -0.28 -96.64 -25.71 
-7.25 -99.04 -11.73 76.27 -38.36 52.07 85.09 -34.62 39.51 
78.47 -46.84 40.61 63.71 -75.79 13.99 74.99 -64.66 14.01 
70.71 -70.71 0 75.3 -64.74 -11.74 91.96 37.5 -11.73 
91.82 30.13 -25.71 96.1 23.87 -13.99 98.77 -15.64 0 
98.67 -8.23 -14.01 96.1 -23.87 -13.99 91.82 -30.13 -25.71 
91.96 -37.5 -11.73 12.92 84.39 -52.07 2.31 78.35 -62.1 
15.98 75.79 -63.25 39.85 45.4 -79.69 25.34 51.34 -81.99 
28.53 37.17 -88.34 18.15 29.6 -93.78 32.63 23.71 -91.5 
-76.27 38.36 -52.07 -73.8 26.41 -62.1 -67.15 38.62 -63.25 
-30.86 51.93 -79.69 -41 39.96 -81.99 -26.54 38.62 -88.34 
-22.54 26.41 -93.78 -12.46 38.36 -91.5 -60.05 -60.68 -52.07 
-47.92 -62.02 -62.1 -57.48 -51.93 -63.25 -58.92 -13.31 -79.69 
-50.67 -26.64 -81.99 -44.93 -13.31 -88.34 -32.08 -13.28 -93.78 
-40.34 0 -91.5 39.16 -75.87 -52.07 44.18 -64.74 -62.1 
31.62 -70.71 -63.25 -5.55 -60.15 -79.69 9.68 -56.43 -81.99 
-1.23 -46.84 -88.34 2.72 -34.62 -93.78 -12.46 -38.36 -91.5 
84.25 13.8 -52.07 75.22 22.01 -62.1 77.02 8.22 -63.25 
55.49 -23.87 -79.69 56.65 -8.23 -81.99 44.17 -15.64 -88.34 
33.76 -8.11 -93.78 32.63 -23.71 -91.5 -32.63 23.71 91.5 
-28.53 37.17 88.34 -18.15 29.6 93.78 -2.72 34.62 93.78 
12.46 38.36 91.5 -32.63 -23.71 91.5 -44.17 -15.64 88.34 
-33.76 -8.11 93.78 -33.76 8.11 93.78 12.46 -38.36 91.5 
1.23 -46.84 88.34 -2.72 -34.62 93.78 -18.15 -29.6 93.78 
40.34 0 91.5 44.93 -13.31 88.34 32.08 -13.28 93.78 
22.54 -26.41 93.78 26.54 38.62 88.34 22.54 26.41 93.78 
32.08 13.28 93.78 52.35 84.39 11.73 63.71 75.79 13.99 
56.58 78.35 25.71 59.22 70.23 39.51 60.05 60.68 52.07 
7.25 99.04 11.73 15.64 98.77 0 22.87 96.64 11.74 
38.3 91.62 11.74 -12.92 84.39 52.07 -20.3 89.1 40.61 
-6.63 91.62 39.51 0.28 96.64 25.71 -91.96 37.5 11.73 
-89.1 45.4 0 -84.84 51.61 11.74 -75.3 64.74 11.74 
-64.08 75.87 11.73 -84.25 13.8 52.07 -91.01 8.22 40.61 
-89.19 22.01 39.51 -91.82 30.13 25.71 -64.08 -75.87 11.73 
-70.71 -70.71 0 -75.3 -64.74 11.74 -84.84 -51.61 11.74 
-91.96 -37.5 11.73 -39.16 -75.87 52.07 -35.95 -84.02 40.61 
-48.49 -78.02 39.51 -57.03 -78.02 25.71 52.35 -84.39 11.73 
45.4 -89.1 0 38.3 -91.62 11.74 22.87 -96.64 11.74 
7.25 -99.04 11.73 60.05 -60.68 52.07 68.8 -60.15 40.61 
59.22 -70.23 39.51 56.58 -78.35 25.71 96.44 23.71 11.73 
98.77 15.64 0 98.98 8.11 11.74 98.98 -8.11 11.74 
96.44 -23.71 11.73 39.16 75.87 -52.07 31.62 70.71 -63.25 
44.18 64.74 -62.1 48.45 51.61 -70.63 51.62 37.5 -77 
-60.05 60.68 -52.07 -57.48 51.93 -63.25 -47.92 62.02 -62.1 
-34.12 62.02 -70.63 -19.72 60.68 -77 -76.27 -38.36 -52.07 
-67.15 -38.62 -63.25 -73.8 -26.41 -62.1 -69.53 -13.28 -70.63 
-63.81 0 -77 12.92 -84.39 -52.07 15.98 -75.79 -63.25 
2.31 -78.35 -62.1 -8.86 -70.23 -70.63 -19.72 -60.68 -77 
84.25 -13.8 -52.07 77.02 -8.22 -63.25 75.22 -22.01 -62.1 
64.06 -30.13 -70.63 51.62 -37.5 -77 -66.68 48.44 56.63 
-62.41 61.56 48.11 -56.23 57.13 59.79 -44.18 64.74 62.1 
-31.62 70.71 63.25 -25.34 51.34 81.99 -21.01 64.66 73.33 
-15.98 75.79 63.25 -2.31 78.35 62.1 11.91 79.26 59.79 
25.47 78.38 56.63 -66.68 -48.44 56.63 -77.84 -40.34 48.11 
-71.7 -35.82 59.79 -75.22 -22.01 62.1 -77.02 -8.22 63.25 
-56.65 -8.23 81.99 -67.99 0 73.33 -77.02 8.22 63.25 
-75.22 22.01 62.1 -71.7 35.82 59.79 25.47 -78.38 56.63 
14.31 -86.49 48.11 11.91 -79.26 59.79 -2.31 -78.35 62.1 
-15.98 -75.79 63.25 -9.68 -56.43 81.99 -21.01 -64.66 73.33 
-31.62 -70.71 63.25 -44.18 -64.74 62.1 -56.23 -57.13 59.79 
82.42 0 56.63 86.68 -13.12 48.11 79.07 -13.17 59.79 
73.8 -26.41 62.1 67.15 -38.62 63.25 50.67 -26.64 81.99 
55 -39.96 73.33 57.48 -51.93 63.25 47.92 -62.02 62.1 
36.95 -71.13 59.79 36.95 71.13 59.79 47.92 62.02 62.1 
57.48 51.93 63.25 41 39.96 81.99 55 39.96 73.33 
67.15 38.62 63.25 73.8 26.41 62.1 79.07 13.17 59.79 
86.68 13.12 48.11 70.94 61.56 -34.31 80.47 48.44 -34.31 
78.63 57.13 -23.55 84.84 51.61 -11.74 89.1 45.4 0 
74.99 64.66 14.01 84.67 51.34 14.01 91.77 37.17 13.99 
91.99 29.6 25.71 90.27 21.3 37.39 -21.21 91.5 -34.31 
-14.31 86.49 -48.11 -7.63 92.43 -37.39 6.63 91.62 -39.51 
20.3 89.1 -40.61 22.66 96.39 -14.01 29.66 91.3 -28.01 
35.95 84.02 -40.61 48.49 78.02 -39.51 60.51 70.29 -37.39 
-60.51 70.29 37.39 -57.03 78.02 25.71 -52.4 84.02 13.99 
-29.66 91.3 28.01 -38.32 91.3 14.01 -45.4 89.1 0 
-38.3 91.62 -11.74 -30.03 92.43 -23.55 -36.63 86.49 -34.31 
[...]
POINT_DATA 40962
SCALARS curvature float
LOOKUP_TABLE default
-0.229961 -0.131492 0.0370014 0.0306267 0.0546339 -0.098206 0.0497352 -0.115512 -0.0191179 
0.196692 -0.00519817 -0.180982 -0.0233361 -0.129658 -0.157572 -0.0314108 -0.0140533 0.0555923 
0.0115626 0.0851649 0.120446 -0.193343 -0.150371 0.136647 -0.009679 -0.108974 -0.0998747 
0.0475036 -0.00461797 -0.532102 -0.193451 -0.122939 0.081726 0.0300496 0.118852 -0.194433 
-0.0514469 -0.0443404 -0.0817351 -0.10175 -0.148113 -0.0549703 0.030546 -0.189983 0.143867 
0.126729 0.0907401 0.283665 -0.118958 -0.00627263 -0.00191325 0.044105 -0.0733028 0.0205761 
-0.00423849 -0.0713715 -0.137123 0.005871 -0.0316447 0.181807 0.141266 -0.324844 -0.183439 
0.0303178 -0.121563 0.0640453 -0.0991586 0.0378249 -0.290313 -0.354702 -0.507785 -0.0105084 
-0.0444299 0.0667795 -0.134561 0.313885 -0.0646857 -0.309097 0.018244 -0.339808 0.099169 
-0.0548137 -0.152802 0.0529637 -0.186223 -0.0360088 0.0447262 0.181743 -0.135192 0.147049 
-0.0607691 0.0100517 -0.0850472 0.114959 0.137472 0.0281929 0.0708371 0.0474845 -0.246904 
-0.00663501 -0.00840383 -0.0563489 0.0744347 -0.0583863 0.0529249 0.00812888 0.144999 0.0212262 
0.114725 -0.0663109 0.112402 0.0393072 -0.000739079 0.00166192 -0.13765 0.038124 -0.441427 
-0.142039 -0.0621791 -0.41014 -0.406322 -0.193073 0.137214 0.1317 -0.065999 0.146472 
-0.185668 0.0919884 0.0154987 -0.0567964 -0.29808 0.0980556 0.0351089 0.0240954 -0.126427 
-0.436707 -0.101686 0.149299 0.114739 -0.0547856 0.0580598 -0.0356298 0.11038 0.0997243 
-0.0250138 0.0220887 -0.14751 -0.0221598 0.00676231 0.214848 -0.0988728 0.0367886 0.0237714 
0.0330147 -0.16965 -0.0129316 -0.15137 0.0787891 0.0779175 0.216293 -0.0493598 -0.0682938 
0.0361631 0.0154013 -0.136099 -0.385627 0.141056 -0.0232442 0.188691 -0.195035 -0.00838478 
0.121382 -0.105524 -0.101724 -0.0428864 0.0334054 0.0302747 0.05651 -0.0891742 -0.144847 
-0.19072 -0.512473 -0.711109 -0.114198 0.0358966 0.128658 0.0334954 0.0535927 -0.10632 
-0.167551 0.0680325 0.00889756 -0.0601514 0.0578097 -0.0286902 0.0543513 0.145767 0.126799 
-0.171025 0.00609965 -0.111937 -0.0735379 -0.113541 0.166287 -0.147698 0.201739 -0.279564 
-0.0356735 -0.174127 -0.386155 0.107706 0.276621 -0.227239 -0.118726 0.112309 -0.281016 
-0.0477349 -0.259726 -0.164775 0.104174 7.15354e-05 0.134815 -0.00361085 0.0752997 0.0216309 
0.177969 0.182958 0.027534 -0.117232 0.192867 -0.233022 -0.177875 -0.00562862 0.161365 
-0.00247632 -0.0770234 -0.138413 0.0696356 -0.00112204 0.00413938 -0.110898 0.0567051 -0.105977 
-0.222045 -0.422196 -0.0443514 -0.320126 -0.243204 -0.719166 0.100106 0.0314868 0.0307163 
0.0357738 -0.544711 0.0466773 -0.2838 0.179376 -0.0686479 -0.328679 -0.182846 0.079879 
0.129606 0.0425023 -0.183247 0.0641346 0.00929383 0.00854364 0.0688081 -0.118573 0.167885 
-0.410876 0.0688152 0.0225176 0.141268 0.188966 0.038629 0.14969 -0.0233979 -0.0175364 
-0.157774 0.116972 0.157576 0.131617 -0.00643169 -0.0475893 0.0241535 -0.154073 -0.0657597 
0.0743972 0.042044 -0.0492756 -0.274981 0.0978205 -0.210157 -0.0877839 -0.145066 -0.268127 
-0.0283037 -0.119519 0.085253 0.102031 0.073753 -0.243532 -0.31879 0.0465773 -0.181031 
-0.034608 0.102002 0.190743 0.171704 0.0122876 0.0617024 -0.0718256 -0.677234 -0.142538 
-0.0152166 0.0317769 0.0668757 -0.0122496 0.148736 0.126369 -0.171335 0.083237 -0.643016 
-0.226694 -0.0413927 0.0851243 0.320541 0.0848049 0.0509886 -0.0116129 -0.0359134 -0.450101 
0.0177714 0.0843657 0.0821749 -0.456972 0.132535 -0.10771 0.0744529 -0.0150718 0.0069356 
-0.102934 -0.108242 0.0277725 -0.487453 0.0563782 -0.0813764 -0.146613 -0.0188055 0.0162481 
-0.0465967 -0.269117 -0.296278 -0.0206442 -0.330615 0.0626383 -0.574059 -0.215735 0.0254607 
-0.142314 0.102352 -0.0791958 -0.143912 0.116018 0.037068 -0.0324126 -0.350083 -0.207957 
-0.0416921 0.17282 -0.0275726 -0.0312303 0.05997 0.0971408 0.120519 -0.131681 -0.404966 
0.121464 0.0571667 0.163825 0.105656 -0.227417 -0.149061 -0.550493 -0.496562 -0.128054 
-0.0972899 0.0127361 0.0680997 -0.251988 -0.343259 0.0264959 -0.229373 -0.101102 -0.246625 
0.150855 0.158828 0.113634 -0.026904 -0.195022 -0.236484 0.164233 -0.0693942 -0.026648 
0.132569 -0.104759 -0.0442937 -0.0956872 0.183968 0.0739183 -0.263181 -0.0950639 -0.0332483 
0.154535 -0.249928 -0.066779 -0.00561946 -0.0401873 -0.158469 0.0118437 -0.0670814 -0.295719 
0.0638009 -0.314581 -0.150821 -0.0556717 0.0121242 0.0900893 -0.210368 0.0138578 0.0181409 
0.0994413 0.0163899 0.155797 0.141071 0.0341851 -0.177666 0.0141932 -0.0959128 -0.3184 
-0.256112 0.0518982 -0.519195 -0.257358 -0.284654 -0.197665 0.0173559 0.197926 -0.358434 
0.0980694 -0.182322 -0.135147 -0.0188185 0.0702144 0.120278 0.0770188 0.0327981 -0.0354879 
-0.0796801 -0.0532791 -0.0487636 -0.0339368 -0.00852408 -0.424214 0.0203017 0.00954026 0.0470681 
-0.209296 0.0103547 0.0281491 -0.596518 0.186389 -0.0595524 -0.0265212 -0.326263 -0.116526 
-0.0171077 0.166474 0.055902 -0.142006 0.0706337 -0.0335665 -0.249389 0.159852 -0.0436198 
-0.169571 -0.0295203 -0.365097 -0.56038 0.137302 -0.429291 0.144993 0.11542 -0.0252944 
0.157093 0.132328 -0.0535523 -0.469176 -0.15909 -0.135149 -0.0781403 0.0544728 0.00360817 
-0.234021 -0.125426 0.202806 -0.0993423 0.0881812 0.0129803 0.213847 0.0836496 0.0120238 
0.0441798 -0.0539269 0.129553 0.0679524 -0.266272 -0.0482857 0.200552 -0.364866 0.149717 
0.0792681 -0.297376 0.0641991 0.0702443 -0.624024 0.0298474 0.0276596 0.00999323 0.102857 
-0.656737 -0.0967147 -0.111289 -0.198654 0.0547186 0.0159243 -0.0531698 0.0901808 -0.0239696 
0.00762688 -0.0630785 -0.105032 0.094267 0.0492229 0.151905 0.0605677 -0.0207839 -0.0720158 
-0.090172 -0.0560658 -0.20057 -0.0292059 0.00856878 -0.018107 0.0775629 -0.024592 -0.036099 
0.0711509 0.0706741 0.0139554 0.159715 0.207614 0.0180009 -0.0623305 0.106384 -0.153067 
0.011575 0.108679 0.136251 0.158233 -0.472921 -0.251614 -0.241758 -0.455472 0.121459 
-0.381926 -0.121894 0.00632554 0.166414 -0.00132155 -0.151444 -0.0381174 0.147868 0.0427384 
0.0840983 -0.0695639 -0.169162 -0.000128506 -0.0111712 0.0101516 0.0141913 -0.134127 0.00450414 
-0.00287026 -0.192431 -0.0374512 0.204915 0.0681734 -0.0129256 0.0116807 -0.0800485 0.0505319 
-0.652742 -0.348403 -0.508648 -0.173869 -0.0869616 -0.219148 -0.0947301 0.01768 -0.145057 
0.0703441 -0.383383 0.146033 0.158072 -0.0450488 -0.00639248 -0.0348699 -0.279435 -0.0456957 
0.0187685 0.127348 -0.00715152 -0.400872 0.0501506 -0.21209 -0.263656 -0.139705 -0.155514 
-0.00146233 0.110046 -0.209358 0.218583 -0.0818106 -0.0844115 0.043336 0.248101 0.33278 
0.350361 0.057892 0.0390163 -0.101699 -0.309744 -0.224978 -0.333201 0.0557504 -0.0524986 
-0.0462854 -0.442145 -0.0911216 0.0988847 0.0204015 -0.0737456 -0.533519 -0.055711 -0.18218 
0.0649018 -0.0312347 -0.0602816 0.0579489 -0.247606 -0.218061 -0.219782 -0.212563 0.0552529 
-0.0494425 -0.202996 -0.0984545 -0.0813485 -0.140685 -0.170934 -0.154696 -0.177624 0.0384249 
-0.0475363 0.0537197 -0.0244709 -0.176456 -0.00548359 -0.0957912 -0.217975 0.0508724 0.0948682 
0.166011 0.0726718 0.0956379 0.0530879 0.0518396 -0.308012 0.0393958 0.121251 -0.101191 
0.0635069 -0.0730314 -0.180136 -0.131636 -0.0814963 0.0275823 -0.00615537 0.0139466 0.0478441 
0.0466289 -0.00742959 0.165248 -0.00260262 -0.00716164 0.123166 0.168001 0.122617 -0.0862466 
-0.0266538 -0.0606688 -0.0554758 -0.116065 -0.215816 -0.137149 -0.236358 -0.399024 0.0906397 
0.044958 0.189566 -0.0829907 -0.00124008 -0.149795 -0.16413 0.0118987 -0.310238 0.0854124 
0.123373 -0.00651675 -0.157437 -0.0490463 0.00727512 -0.0547588 -0.0744537 -0.132026 -0.249452 
-0.0270052 0.0524928 0.0926615 0.0811318 0.0157738 -0.168577 0.136851 0.0441169 0.08192 
-0.0942672 0.044059 0.0777395 -0.270642 -0.158429 0.0324643 0.0676738 0.101084 0.164304 
0.0235688 0.0817543 -0.521683 -0.349416 0.190676 -0.156157 0.198706 0.212265 0.0257468 
-0.0165163 -0.124402 -0.130624 0.022339 -0.0577683 0.00665622 -0.480783 0.0064895 -0.0382409 
-0.0157129 -0.163649 0.027902 -0.0436494 0.00525048 0.0841056 0.07566 -0.0054445 -0.152143 
-0.0298516 0.0942285 0.121466 0.193126 0.0803052 0.124303 0.182862 -0.230561 0.0271126 
-0.0947361 0.0547631 -0.251989 -0.0206743 -0.292663 -0.16994 0.331354 0.0909339 0.214092 
-0.377414 -0.305623 -0.0564128 -0.539512 -0.208257 0.151199 0.212772 0.245251 0.341609 
-0.0394962 -0.270029 -0.084639 -0.032555 -0.628096 -0.461179 -0.500065 -0.719749 -0.134402 
0.0159936 -0.172784 0.0688473 -0.0260643 -0.0358059 -0.103089 0.0507447 0.07031 0.0255053 
0.0779862 -0.131645 -0.000986397 -0.082033 -0.0407945 -0.11472 -0.00900946 -1.19505 -0.56947 
-0.301478 -0.115725 -0.00834996 0.140079 0.0909503 -0.0389154 -0.348023 -0.284358 0.0263078 
0.221949 0.11297 -0.119852 -0.0474206 0.111094 0.0653966 0.13493 0.0681349 0.182162 
0.0733377 -0.0609443 0.0783088 -0.0383082 -0.059262 0.102572 0.0521893 0.0694304 -0.00614831 
0.102713 0.0321724 -0.117895 0.074819 0.0662806 0.185772 0.176975 0.123834 0.231493 
0.109013 0.137464 0.0192055 0.0533422 -0.0211907 -0.385421 -0.0887975 0.00422481 -0.0504114 
0.0153056 -0.237524 0.141533 0.0424492 0.0524279 0.19412 -0.350803 -0.240057 0.136923 
-0.111105 -0.139792 -0.375188 -0.139888 -0.0172952 -0.103435 -0.120814 -0.39238 0.019296 
0.138961 0.188487 0.0111874 0.170103 0.0380471 -0.177652 -0.18092 -0.106433 -0.0124261 
0.129189 0.032005 -0.263068 -0.514514 -0.102281 0.0026871 0.0246368 -0.286046 -0.019712 
0.128039 0.0392117 -0.107805 -0.0543398 0.133332 0.0490349 0.0302086 -0.22078 -0.305734 
-0.154793 -0.0496227 -0.130172 -0.0992032 -0.0539596 0.0403188 -0.313316 -0.0167461 -0.030131 
0.0337519 -0.349696 -0.286403 -0.110545 -0.105732 0.0655678 -0.0503783 -0.119888 -0.683549 
-0.17619 -0.261034 -0.109936 -0.394441 -0.257019 -0.0306192 -0.488684 -0.568582 -0.0463091 
-1.27717 -0.101815 -0.0569565 -0.10267 -0.0578967 -0.337129 0.0718524 0.143136 0.0406841 
-0.073807 -0.0282791 -0.170119 0.0621324 -0.529589 -0.0585599 -0.191697 -0.00514501 0.0564087 
-0.145087 -0.0594421 -0.168592 -0.161529 -0.287388 -0.151876 -0.22251 -0.305743 -0.0997607 
-0.116461 -0.0360616 -0.0634043 0.045996 0.275738 -0.17155 0.0947882 0.239187 0.00917788 
-0.188591 -0.240538 -0.166571 -0.156262 -0.21502 0.0656897 -0.103504 0.121993 0.181035 
0.0069734 -0.19332 -0.0189974 -0.026816 -0.0226076 -0.185501 -0.223602 -0.0566865 -0.247583 
-0.204107 0.0494063 0.00111482 -0.294865 -0.277716 -0.00350844 -0.100263 0.00707899 -0.0527191 
-0.0353756 0.109714 0.0928626 0.146722 -0.0116898 0.111333 -0.0140684 -0.193107 0.0584109 
0.0354594 -0.135936 -0.477223 0.0121926 -0.507968 -0.0797932 -0.132833 0.0594058 0.13828 
0.0647227 0.113915 0.0850828 -0.194727 -0.00161679 -0.0468721 -0.23852 -0.171649 -0.00852825 
-0.222726 -0.179854 0.0511746 0.0229954 0.0538373 0.0480619 0.0759787 -0.1171 0.0223804 
0.0592735 0.0555463 0.153154 0.081238 0.108554 -0.00683919 -0.0696537 -0.11746 -0.118752 
0.13913 0.15164 0.179811 -0.497336 -0.0851405 -0.157379 -0.346509 -0.138605 -0.201148 
-0.367684 0.00556308 0.0439468 0.147086 0.0226328 -0.0702645 -0.0927095 -0.0280178 0.154188 
0.0648498 -0.00856628 0.041157 0.0227892 0.0801165 -0.0825794 -0.266035 -0.275826 0.104222 
0.0684842 0.0279845 0.0181188 -0.323506 -0.034618 -0.093152 -0.0531051 -0.257858 -0.249819 
-0.0496923 -0.126378 -0.0744686 -0.0889373 -0.541708 -0.248353 0.0623446 -0.605693 0.0820445 
0.0238767 0.125681 -0.49066 -0.20411 0.0393818 0.0266393 -0.202469 -0.0991577 0.102732 
0.0759986 0.138406 0.0742668 0.147082 -0.3258 -0.0157298 -0.0945477 -0.0451266 0.0639835 
-0.559125 -0.95719 -0.0659936 -0.0631319 0.180623 0.054593 0.0236972 -0.225534 0.0226942 
-0.370487 0.00165128 -0.428188 -0.116169 -0.0886445 -0.0210389 -0.0383765 -0.252223 -0.365739 
-0.292589 0.104422 -0.129378 -0.129833 0.0903687 0.10816 0.121382 -0.27902 -0.0932424 
-0.227283 -0.115639 -0.0916816 0.062307 0.212405 0.00404943 -0.0695854 -0.0695239 -0.194852 
-0.156959 -0.0382013 0.0281027 0.0544012 -0.424305 0.082125 -0.320496 -0.0630553 0.0658417 
-0.19014 0.181499 -0.204996 -0.204984 -0.0989915 0.0820109 0.118584 0.0823607 0.00299654 
-0.0910919 -0.119193 -0.393952 -1.15671 -0.0428609 -0.0124275 0.0793925 -0.00391431 0.078806 
-0.0262785 -0.0115704 -0.159077 0.102889 -0.415643 -0.0468572 -0.0356267 -0.0817448 0.0879919 
0.146454 0.0425011 0.1157 -0.392061 -0.0183813 -0.0222261 0.107574 0.181409 0.0492354 
0.0676642 -0.0454968 -0.00836315 0.00260971 0.0382595 -0.0619571 0.019214 -0.276991 0.0846454 
-0.437695 -0.455017 0.101513 0.0489471 -0.162789 -0.0342183 -0.0585718 0.133767 0.0702925 
0.146603 0.11595 0.0705556 -0.0242207 -0.0887019 -0.0539235 0.0239566 0.0521392 -0.0355742 
0.0104696 0.0306605 -0.107833 0.0523611 0.0297063 -0.142608 -0.169885 -0.135571 -0.0274659 
0.0852673 0.240519 0.0990003 -0.0162698 0.0262189 0.000644776 -0.316907 -0.203713 -0.0431267 
0.0137 0.0723904 -0.0433745 -0.27584 -0.243597 -0.202859 0.100904 0.10608 0.191644 
0.11501 0.180773 -0.235315 -0.0723697 -0.0898721 -0.420255 0.0214857 0.114458 -0.027601 
-0.552196 -0.323219 -0.0300631 0.108715 0.037125 -0.0156507 -0.300033 -0.145106 -0.113666 
-0.0273724 -0.0345015 0.0954881 0.0970678 -0.311428 0.000130942 0.106154 0.131512 0.192659 
0.00722858 -0.27665 -0.263632 0.0202416 -0.544295 0.0694087 -0.0241704 0.19752 0.170197 
0.204467 0.111042 -0.0787262 0.140413 -0.0315002 -0.108744 -0.175344 0.0859834 0.00739557 
0.00115299 -0.00182058 0.0145792 -0.00303144 0.0202725 0.0239164 0.0168664 0.0964497 -0.246959 
-0.0257504 -0.314978 -0.100062 -0.0157078 0.00357384 -0.0185111 -0.0602116 -0.174036 -0.0683132 
0.272894 -0.16745 -0.250538 -0.00116275 -0.65482 0.106834 -0.389507 0.0503731 0.0019179 
0.0649871 0.232771 0.109779 -0.0201353 -0.0316603 0.0390351 0.233119 -0.234599 0.341356 
0.241403 -0.0149171 0.0234504 0.113191 0.0634509 -0.15124 -0.146363 -0.0955517 -0.136842 
0.127041 -0.194118 0.157107 -0.00213449 0.219599 0.109915 -0.312256 -0.461167 0.00665722 
-0.447058 -0.671901 -0.0265972 -0.402982 0.0744662 0.10752 0.0857567 -0.0987229 -0.157279 
-0.222904 0.0330006 -0.578104 -0.0411798 0.116623 0.103495 -0.0137402 -0.0124865 -0.014514 
-0.0677406 0.0564733 -0.0430248 -0.18248 -0.0405348 0.00816965 -0.186831 -0.156237 -0.103441 
-0.0164711 0.142451 0.142113 0.161953 0.00920208 -0.0997247 0.00561975 0.0789676 0.108331 
0.130534 0.0391812 0.149564 0.159504 -0.408407 -0.397523 0.0773282 -0.111097 0.116731 
0.18561 -0.0241871 0.0335694 0.057208 -0.140096 0.0789705 -0.215337 -0.0443862 0.08953 
0.130411 0.0313558 -0.455376 0.00145061 -0.389821 -0.0881462 -0.00689995 -0.00324226 -0.047448 
0.066269 -0.318842 0.0213251 0.127019 0.0228219 -0.129214 0.232018 -0.0934524 -0.130601 
0.115484 0.148363 0.463534 0.0949589 0.0703239 -0.0235304 -0.0167552 -0.00266667 0.00937975 
0.0672345 0.259149 0.0794765 -0.460519 -0.461395 -0.0418912 0.0056051 0.093643 0.0966032 
0.00980205 0.100009 0.133756 0.228379 0.127317 0.127048 -0.0304182 -0.43455 -0.270905 
-0.0156649 0.0954206 0.0338753 0.133607 -0.0778786 0.134609 0.113377 0.0459178 -0.0891078 
-0.0390348 0.171371 -0.0264409 -0.306479 -0.136033 -0.12282 -0.0916747 0.148723 0.0976413 
0.0431802 -0.194059 -0.225356 -0.541853 -0.405835 -0.134349 -0.0690684 0.0217725 0.0222113 
0.0842807 0.0372235 0.0575836 0.00339389 -0.00152082 0.0126639 -0.00343409 -0.344167 -0.284623 
-0.0544542 -0.226016 -0.055003 0.0929266 -0.055715 -0.171952 -0.107954 -0.0997559 -0.0398948 
-0.103897 -0.272409 0.150983 0.0463441 0.00680705 -0.0622812 0.157045 -0.119547 -0.189496 
-0.0362062 -0.0351737 -0.0805078 -0.0463594 -0.0694895 0.115701 0.0430526 -0.0342157 0.0964267 
0.050951 -0.0659569 -0.0915026 -0.0699142 -0.195075 -0.213289 -0.24652 -0.0224562 0.163166 
0.25959 0.0491978 -0.0984497 -0.187022 -0.122183 0.109507 0.164023 -0.307932 0.0485939 
-0.140469 -0.189113 -0.118424 -0.201908 -0.172697 0.0255634 0.0782415 0.105093 0.0481542 
0.126432 -0.0111912 -0.0253814 0.178225 0.05296 0.137678 0.102044 0.0922265 0.106026 
0.209075 0.01515 -0.0121347 -0.0543843 0.13421 0.0822189 0.0114169 -0.157377 -0.0951759 
-0.0477084 -0.025799 0.0228701 0.142242 0.129903 0.0987031 0.0184811 -0.106029 -0.346938 
0.029162 0.107911 0.240048 0.192743 0.115589 -0.418242 -0.378273 -0.508605 -0.151407 
-0.0321293 0.225906 0.194386 0.0682083 -0.143411 -0.0317196 0.0240018 -0.246177 -0.0446389 
0.0788698 -0.167503 -0.300394 -0.0434505 -0.0985101 -0.137772 0.115614 -0.011918 -0.0973661 
0.0121798 -0.271558 -0.0554114 -0.020286 -0.087287 -0.21833 0.109606 0.134098 -0.127172 
-0.533509 0.143087 0.0179058 -0.28515 -0.277386 -0.169014 -0.195125 -0.535752 -0.0906202 
-0.0450591 2.27905e-05 0.0696935 0.0606198 0.0203949 -0.0166673 -0.0652208 -0.161582 -0.0357786 
0.0299951 0.158639 -0.111543 -0.0615738 -0.317952 -0.0951705 -0.282242 0.0484764 0.193651 
0.150027 -0.0137265 -0.360572 0.117727 0.16771 0.231764 0.191729 0.239954 0.134483 
0.0729541 0.11062 0.176926 0.204841 -0.178022 -0.20219 -0.307446 -0.0659148 -0.0207258 
0.0270989 -0.211348 -0.529493 0.17975 0.088142 0.0413996 0.0472294 0.15227 0.112585 
0.0281777 0.0364476 0.0264888 -0.0308916 -0.0962004 0.085551 0.0279604 -0.0120485 0.0358267 
0.0696951 -0.0794511 -0.0931534 -0.129027 0.0909914 -0.0871796 -0.0255741 -0.0740121 -0.0440419 
-0.264683 -0.293199 -0.0647712 0.0097263 -0.124673 -0.0561483 -0.0812583 0.0351315 0.135777 
0.124596 0.080393 0.190364 -0.0394458 -0.130732 0.0936899 0.136913 -0.0757849 -0.23632 
-0.158842 -0.0892332 -0.118287 -0.289894 -0.232587 -0.0793715 0.114362 0.198137 0.0229073 
-0.122743 0.0387165 -0.469922 -0.359216 -0.16698 -0.015336 -0.148572 0.0447772 0.00843263 
-0.00546335 -0.00187617 0.0131484 0.0156869 0.274943 0.0616522 0.19313 0.013648 -0.0735988 
-0.085483 0.169635 0.202095 -0.363328 0.0891585 -0.0982856 0.146197 -0.723853 0.0723809 
0.0803854 0.00802831 0.0103226 0.114901 0.134248 0.0902012 -0.0145762 -0.0165741 0.0319414 
-0.487085 0.00122275 -0.241173 -0.00364425 -0.0543422 -0.0321408 -0.645312 -0.88449 -0.13998 
0.0209027 -0.101318 -0.00578128 -0.395872 0.211153 -0.0184669 -0.070184 0.00330072 0.0328815 
-0.150268 0.0793258 -0.00430866 -0.109995 -0.0338226 -0.437299 -0.127447 -0.332252 -0.335358 
-0.076951 0.175916 0.177972 0.112612 -0.0848193 -0.306623 -0.144688 -0.106586 0.113218 
0.115891 0.0421291 0.10646 -0.227601 0.0469269 -0.346779 -0.00941428 0.118847 -0.358569 
0.122012 0.0150175 0.147274 -0.170668 -0.10711 -0.259533 -0.402634 -0.379301 -0.0109847 
-0.0109527 0.155165 0.0260977 -0.516515 -0.411917 -0.256034 -0.1896 0.165743 0.0534885 
-0.140023 -0.101069 -0.101394 -0.0448904 -0.151674 -0.0898409 -0.243619 -0.260984 -0.10709 
0.217559 0.168699 0.222923 0.0278771 -0.0955693 -0.216378 -0.0729695 -0.180822 -0.156151 
-0.214502 0.0737948 0.106454 -0.418938 -0.178559 -0.0956265 0.0895352 0.091588 0.0409186 
-0.33445 0.0105829 -0.0509045 0.0608241 0.0161188 0.229217 0.0362664 -0.0195241 -0.0805756 
0.188635 0.0388209 0.193272 0.051976 -0.0743782 0.0129124 -0.0278204 -0.0524659 -0.348467 
-0.0364559 -0.114245 0.0452714 -0.106113 -0.570358 -0.0584542 -0.140051 -0.424551 -0.391624 
-0.268604 -0.205481 0.0601007 0.0751674 -0.0130885 0.0205915 -0.0384375 0.0138847 0.004177 
-0.44642 -0.0247106 0.119383 -0.178549 0.00582777 -0.0844161 -0.0827709 -0.0177222 -0.226798 
0.0473458 -0.327817 0.144043 0.184003 0.0658154 0.147926 0.118725 -0.352558 -0.0189616 
0.170912 0.060466 -0.0920009 -0.0340178 -0.0387518 -0.0527973 -0.253477 -0.00825205 0.0943246 
-0.020849 0.150946 0.0559559 0.161017 0.0677539 -0.0841737 0.0185076 0.0648593 0.0734066 
0.0387646 0.0504477 -0.0969339 -0.167308 -0.20674 -0.260698 -0.284197 0.13505 0.0959286 
0.0519986 0.0185147 0.0109575 -0.0211633 -0.218365 -0.344894 -0.0461399 -0.147205 0.0542034 
0.0450686 -0.147007 0.0980347 -3.24089e-05 -0.0376707 -0.550334 -0.333338 0.00698896 0.0109747 
-0.0135481 0.0276599 0.0787368 -0.0644351 -0.166972 0.092153 -0.0116158 -0.206195 0.0453248 
-0.101745 -0.099759 0.308055 0.0814799 0.362063 0.377267 0.148822 -0.342548 -0.188432 
-0.136291 -0.104166 -0.0965119 0.00591278 0.280757 0.168952 0.28447 -0.0179392 -0.0121811 